----- GAMESS execution script 'rungms' -----
This job is running on host garcias-gamess-test-vnc-3618725
under operating system Linux at Sat Oct 22 20:40:32 UTC 2016
Available scratch disk space (Kbyte units) at beginning of the job is
Filesystem     1K-blocks    Used Available Use% Mounted on
none             2234668 1316200    783352  63% /
GAMESS temporary binary files will be written to /tmp
GAMESS supplementary output files will be written to /tmp
Copying input file methane.inp to your run's scratch directory...

 Distributed Data Interface kickoff program.
 Initiating 1 compute processes on 1 nodes to run the following command:
 /home/ubuntu/gamess/gamess.00.x methane 

          ******************************************************
          *         GAMESS VERSION =  5 DEC 2014 (R1)          *
          *             FROM IOWA STATE UNIVERSITY             *
          * M.W.SCHMIDT, K.K.BALDRIDGE, J.A.BOATZ, S.T.ELBERT, *
          *   M.S.GORDON, J.H.JENSEN, S.KOSEKI, N.MATSUNAGA,   *
          *          K.A.NGUYEN, S.J.SU, T.L.WINDUS,           *
          *       TOGETHER WITH M.DUPUIS, J.A.MONTGOMERY       *
          *         J.COMPUT.CHEM.  14, 1347-1363(1993)        *
          **************** 64 BIT LINUX VERSION ****************

  SINCE 1993, STUDENTS AND POSTDOCS WORKING AT IOWA STATE UNIVERSITY
  AND ALSO IN THEIR VARIOUS JOBS AFTER LEAVING ISU HAVE MADE IMPORTANT
  CONTRIBUTIONS TO THE CODE:
     IVANA ADAMOVIC, CHRISTINE AIKENS, YURI ALEXEEV, POOJA ARORA,
     ANDREY ASADCHEV, ROB BELL, PRADIPTA BANDYOPADHYAY, JONATHAN BENTZ,
     BRETT BODE, KURT BRORSEN, CALEB CARLIN, GALINA CHABAN, WEI CHEN,
     CHEOL HO CHOI, PAUL DAY, ALBERT DEFUSCO, NUWAN DESILVA, TIM DUDLEY,
     DMITRI FEDOROV, GRAHAM FLETCHER, MARK FREITAG, KURT GLAESEMANN,
     DAN KEMP, GRANT MERRILL, NORIYUKI MINEZAWA, JONATHAN MULLIN,
     TAKESHI NAGATA, SEAN NEDD, HEATHER NETZLOFF, BOSILJKA NJEGIC, RYAN OLSON,
     MIKE PAK, SPENCER PRUITT, LUKE ROSKOP, JIM SHOEMAKER, LYUDMILA SLIPCHENKO,
     TONY SMITH, SAROM SOK, JIE SONG, TETSUYA TAKETSUGU, SIMON WEBB,
     PENG XU, SOOHAENG YOO, FEDERICO ZAHARIEV

  ADDITIONAL CODE HAS BEEN PROVIDED BY COLLABORATORS IN OTHER GROUPS:
     IOWA STATE UNIVERSITY:
          JOE IVANIC, AARON WEST, LAIMUTIS BYTAUTAS, KLAUS RUEDENBERG
     UNIVERSITY OF TOKYO: KIMIHIKO HIRAO, TAKAHITO NAKAJIMA,
          TAKAO TSUNEDA, MUNEAKI KAMIYA, SUSUMU YANAGISAWA,
          KIYOSHI YAGI, MAHITO CHIBA, SEIKEN TOKURA, NAOAKI KAWAKAMI
     UNIVERSITY OF AARHUS: FRANK JENSEN
     UNIVERSITY OF IOWA: VISVALDAS KAIRYS, HUI LI
     NATIONAL INST. OF STANDARDS AND TECHNOLOGY: WALT STEVENS, DAVID GARMER
     UNIVERSITY OF PISA: BENEDETTA MENNUCCI, JACOPO TOMASI
     UNIVERSITY OF MEMPHIS: HENRY KURTZ, PRAKASHAN KORAMBATH
     UNIVERSITY OF ALBERTA: TOBY ZENG, MARIUSZ KLOBUKOWSKI
     UNIVERSITY OF NEW ENGLAND: MARK SPACKMAN
     MIE UNIVERSITY: HIROAKI UMEDA
     NAT. INST. OF ADVANCED INDUSTRIAL SCIENCE AND TECHNOLOGY: KAZUO KITAURA
     MICHIGAN STATE UNIVERSITY:
          KAROL KOWALSKI, MARTA WLOCH, JEFFREY GOUR, JESSE LUTZ,
          WEI LI, PIOTR PIECUCH
     UNIVERSITY OF SILESIA: MONIKA MUSIAL, STANISLAW KUCHARSKI
     FACULTES UNIVERSITAIRES NOTRE-DAME DE LA PAIX:
          OLIVIER QUINET, BENOIT CHAMPAGNE
     UNIVERSITY OF CALIFORNIA - SANTA BARBARA: BERNARD KIRTMAN
     INSTITUTE FOR MOLECULAR SCIENCE:
          KAZUYA ISHIMURA, MICHIO KATOUDA, AND SHIGERU NAGASE
     UNIVERSITY OF NOTRE DAME: ANNA POMOGAEVA, DAN CHIPMAN
     KYUSHU UNIVERSITY:
          HARUYUKI NAKANO,
          FENG LONG GU, JACEK KORCHOWIEC, MARCIN MAKOWSKI, AND YURIKO AOKI,
          HIROTOSHI MORI AND EISAKU MIYOSHI
     PENNSYLVANIA STATE UNIVERSITY:
          TZVETELIN IORDANOV, CHET SWALINA, JONATHAN SKONE,
          SHARON HAMMES-SCHIFFER
     WASEDA UNIVERSITY:
          MASATO KOBAYASHI, TOMOKO AKAMA, TSUGUKI TOUMA,
          TAKESHI YOSHIKAWA, YASUHIRO IKABATA, HIROMI NAKAI
     NANJING UNIVERSITY: SHUHUA LI
     UNIVERSITY OF NEBRASKA:
          PEIFENG SU, DEJUN SI, NANDUN THELLAMUREGE, YALI WANG, HUI LI
     UNIVERSITY OF ZURICH: ROBERTO PEVERATI, KIM BALDRIDGE
     N. COPERNICUS UNIVERSITY AND JACKSON STATE UNIVERSITY:
          MARIA BARYSZ
     UNIVERSITY OF COPENHAGEN: CASPER STEINMANN
     TOKYO INSTITUTE OF TECHNOLOGY: HIROYA NAKATA
     NAGOYA UNIVERSITY: YOSHIO NISHIMOTO, STEPHAN IRLE

 EXECUTION OF GAMESS BEGUN Sat Oct 22 20:40:32 2016

            ECHO OF THE FIRST FEW INPUT CARDS -
 INPUT CARD>!   File created by MacMolPlt 7.5                                               
 INPUT CARD> $CONTRL SCFTYP=RHF RUNTYP=ENERGY EXETYP=RUN MAXIT=30 MULT=1 $END               
 INPUT CARD> $SYSTEM TIMLIM=525600 MEMORY=1000000 $END                                      
 INPUT CARD> $BASIS GBASIS=N21 NGAUSS=3 $END                                                
 INPUT CARD> $GUESS GUESS=HUCKEL $END                                                       
 INPUT CARD> $SCF DIRSCF=.TRUE. $END                                                        
 INPUT CARD> $DATA                                                                          
 INPUT CARD>methane                                                                         
 INPUT CARD>TD                                                                              
 INPUT CARD>                                                                                
 INPUT CARD>C     6.0     0.00000     0.00000     0.00000                                   
 INPUT CARD>H     1.0     0.62520     0.62520     0.62520                                   
 INPUT CARD> $END                                                                           
    1000000 WORDS OF MEMORY AVAILABLE

     BASIS OPTIONS
     -------------
     GBASIS=N21          IGAUSS=       3      POLAR=NONE    
     NDFUNC=       0     NFFUNC=       0     DIFFSP=       F
     NPFUNC=       0      DIFFS=       F     BASNAM=        


     RUN TITLE
     ---------
 methane                                                                         

 THE POINT GROUP OF THE MOLECULE IS TD      
 THE ORDER OF THE PRINCIPAL AXIS IS     0

 ATOM      ATOMIC                      COORDINATES (BOHR)
           CHARGE         X                   Y                   Z
 C           6.0     0.0000000000        0.0000000000        0.0000000000
 H           1.0     1.1814566875       -1.1814566875       -1.1814566875
 H           1.0    -1.1814566875        1.1814566875       -1.1814566875
 H           1.0    -1.1814566875       -1.1814566875        1.1814566875
 H           1.0     1.1814566875        1.1814566875        1.1814566875

          INTERNUCLEAR DISTANCES (ANGS.)
          ------------------------------

                1 C          2 H          3 H          4 H          5 H     

   1 C       0.0000000    1.0828782 *  1.0828782 *  1.0828782 *  1.0828782 *
   2 H       1.0828782 *  0.0000000    1.7683326 *  1.7683326 *  1.7683326 *
   3 H       1.0828782 *  1.7683326 *  0.0000000    1.7683326 *  1.7683326 *
   4 H       1.0828782 *  1.7683326 *  1.7683326 *  0.0000000    1.7683326 *
   5 H       1.0828782 *  1.7683326 *  1.7683326 *  1.7683326 *  0.0000000  

  * ... LESS THAN  3.000


     ATOMIC BASIS SET
     ----------------
 THE CONTRACTED PRIMITIVE FUNCTIONS HAVE BEEN UNNORMALIZED
 THE CONTRACTED BASIS FUNCTIONS ARE NOW NORMALIZED TO UNITY

  SHELL TYPE  PRIMITIVE        EXPONENT          CONTRACTION COEFFICIENT(S)

 C         

      1   S       1           172.2560000    0.061766907377
      1   S       2            25.9109000    0.358794042852
      1   S       3             5.5333500    0.700713083689

      2   L       4             3.6649800   -0.395895162119    0.236459946619
      2   L       5             0.7705450    1.215834355681    0.860618805716

      3   L       6             0.1958570    1.000000000000    1.000000000000

 H         

     10   S       7             5.4471780    0.156284978695
     10   S       8             0.8245472    0.904690876670

     11   S       9             0.1831916    1.000000000000

 TOTAL NUMBER OF BASIS SET SHELLS             =   11
 NUMBER OF CARTESIAN GAUSSIAN BASIS FUNCTIONS =   17
 NUMBER OF ELECTRONS                          =   10
 CHARGE OF MOLECULE                           =    0
 SPIN MULTIPLICITY                            =    1
 NUMBER OF OCCUPIED ORBITALS (ALPHA)          =    5
 NUMBER OF OCCUPIED ORBITALS (BETA )          =    5
 TOTAL NUMBER OF ATOMS                        =    5
 THE NUCLEAR REPULSION ENERGY IS       13.5237516304

     $CONTRL OPTIONS
     ---------------
 SCFTYP=RHF          RUNTYP=ENERGY       EXETYP=RUN     
 MPLEVL=       0     CITYP =NONE         CCTYP =NONE         VBTYP =NONE    
 DFTTYP=NONE         TDDFT =NONE    
 MULT  =       1     ICHARG=       0     NZVAR =       0     COORD =UNIQUE  
 PP    =NONE         RELWFN=NONE         LOCAL =NONE         NUMGRD=       F
 ISPHER=      -1     NOSYM =       0     MAXIT =      30     UNITS =ANGS    
 PLTORB=       F     MOLPLT=       F     AIMPAC=       F     FRIEND=        
 NPRINT=       7     IREST =       0     GEOM  =INPUT   
 NORMF =       0     NORMP =       0     ITOL  =      20     ICUT  =       9
 INTTYP=BEST         GRDTYP=BEST         QMTTOL= 1.0E-06

     $SYSTEM OPTIONS
     ---------------
  REPLICATED MEMORY=     1000000 WORDS (ON EVERY NODE).
 DISTRIBUTED MEMDDI=           0 MILLION WORDS IN AGGREGATE,
 MEMDDI DISTRIBUTED OVER   1 PROCESSORS IS           0 WORDS/PROCESSOR.
 TOTAL MEMORY REQUESTED ON EACH PROCESSOR=     1000000 WORDS.
 TIMLIM=      525600.00 MINUTES, OR     365.0 DAYS.
 PARALL= F  BALTYP=  DLB     KDIAG=    0  COREFL= F
 MXSEQ2=     300 MXSEQ3=     150  mem10=         0

          ----------------
          PROPERTIES INPUT
          ----------------

     MOMENTS            FIELD           POTENTIAL          DENSITY
 IEMOM =       1   IEFLD =       0   IEPOT =       0   IEDEN =       0
 WHERE =COMASS     WHERE =NUCLEI     WHERE =NUCLEI     WHERE =NUCLEI  
 OUTPUT=BOTH       OUTPUT=BOTH       OUTPUT=BOTH       OUTPUT=BOTH    
 IEMINT=       0   IEFINT=       0                     IEDINT=       0
                                                       MORB  =       0
          EXTRAPOLATION IN EFFECT
          DIIS IN EFFECT
 ORBITAL PRINTING OPTION: NPREO=     1    17     2     1

     -------------------------------
     INTEGRAL TRANSFORMATION OPTIONS
     -------------------------------
     NWORD  =            0
     CUTOFF = 1.0E-09     MPTRAN =       0
     DIRTRF =       T     AOINTS =DUP     

          ----------------------
          INTEGRAL INPUT OPTIONS
          ----------------------
 NOPK  =       1 NORDER=       0 SCHWRZ=       T

     --------------------------------
     THE POINT GROUP IS TD , ORDER=24
     --------------------------------

     DIMENSIONS OF THE SYMMETRY SUBSPACES ARE
 A1  =    5     A2  =    0     E   =    0     T1  =    0     T2  =    4

 ..... DONE SETTING UP THE RUN .....
 STEP CPU TIME =     0.00 TOTAL CPU TIME =        0.0 (    0.0 MIN)
 TOTAL WALL CLOCK TIME=        0.0 SECONDS, CPU UTILIZATION IS   0.00%

          ********************
          1 ELECTRON INTEGRALS
          ********************
 ...... END OF ONE-ELECTRON INTEGRALS ......
 STEP CPU TIME =     0.00 TOTAL CPU TIME =        0.0 (    0.0 MIN)
 TOTAL WALL CLOCK TIME=        0.0 SECONDS, CPU UTILIZATION IS   0.00%

          -------------
          GUESS OPTIONS
          -------------
          GUESS =HUCKEL            NORB  =       0          NORDER=       0
          MIX   =       F          PRTMO =       F          PUNMO =       F
          TOLZ  = 1.0E-08          TOLE  = 1.0E-05
          SYMDEN=       F          PURIFY=       F

 INITIAL GUESS ORBITALS GENERATED BY HUCKEL   ROUTINE.
 HUCKEL GUESS REQUIRES      5845 WORDS.

 SYMMETRIES FOR INITIAL GUESS ORBITALS FOLLOW.   BOTH SET(S).
     5 ORBITALS ARE OCCUPIED (    1 CORE ORBITALS).
     2=A1       3=T2       4=T2       5=T2       6=T2       7=T2       8=T2  
     9=A1      10=A1      11=A1      12=T2      13=T2      14=T2      15=T2  
 ...... END OF INITIAL ORBITAL SELECTION ......
 STEP CPU TIME =     0.00 TOTAL CPU TIME =        0.0 (    0.0 MIN)
 TOTAL WALL CLOCK TIME=        0.0 SECONDS, CPU UTILIZATION IS   0.00%

                    ----------------------
                    AO INTEGRAL TECHNOLOGY
                    ----------------------
     S,P,L SHELL ROTATED AXIS INTEGRALS, REPROGRAMMED BY
        KAZUYA ISHIMURA (IMS) AND JOSE SIERRA (SYNSTAR).
     S,P,D,L SHELL ROTATED AXIS INTEGRALS PROGRAMMED BY
        KAZUYA ISHIMURA (INSTITUTE FOR MOLECULAR SCIENCE).
     S,P,D,F,G SHELL TO TOTAL QUARTET ANGULAR MOMENTUM SUM 5,
        ERIC PROGRAM BY GRAHAM FLETCHER (ELORET AND NASA ADVANCED
        SUPERCOMPUTING DIVISION, AMES RESEARCH CENTER).
     S,P,D,F,G,L SHELL GENERAL RYS QUADRATURE PROGRAMMED BY
        MICHEL DUPUIS (PACIFIC NORTHWEST NATIONAL LABORATORY).

          --------------------
          2 ELECTRON INTEGRALS
          --------------------

 DIRECT SCF METHOD SKIPS INTEGRAL STORAGE ON DISK.
 DIRECT TRANSFORMATION SKIPS AO INTEGRAL STORAGE ON DISK.
  ...... END OF TWO-ELECTRON INTEGRALS .....
 STEP CPU TIME =     0.02 TOTAL CPU TIME =        0.0 (    0.0 MIN)
 TOTAL WALL CLOCK TIME=        0.0 SECONDS, CPU UTILIZATION IS 100.00%

          --------------------------
                 RHF SCF CALCULATION
          --------------------------

     NUCLEAR ENERGY =        13.5237516304
     MAXIT =   30     NPUNCH=    2
     EXTRAP=T  DAMP=F  SHIFT=F  RSTRCT=F  DIIS=T  DEM=F  SOSCF=F
     DENSITY MATRIX CONV=  2.00E-05
     MEMORY REQUIRED FOR RHF ITERS=     47414 WORDS.

 DIRECT SCF CALCULATION, SCHWRZ=T   FDIFF=T,  DIRTHR=  0.00E+00 NITDIR=10
 SCHWARZ INEQUALITY OVERHEAD:       153 INTEGRALS, T=        0.00

                                                                                   NONZERO     BLOCKS
 ITER EX DEM     TOTAL ENERGY        E CHANGE  DENSITY CHANGE    DIIS ERROR      INTEGRALS    SKIPPED
   1  0  0      -39.9090376713   -39.9090376713   0.391629674   0.690570646           1905          0
          * * *   INITIATING DIIS PROCEDURE   * * *
   2  1  0      -39.9738820228    -0.0648443515   0.080238873   0.051611168           1905          0
   3  2  0      -39.9765564841    -0.0026744613   0.021355762   0.025062272           1905          0
   4  3  0      -39.9768539176    -0.0002974335   0.009177355   0.003405281           1905          0
   5  4  0      -39.9768771237    -0.0000232061   0.001008735   0.000893087           1905          0
   6  5  0      -39.9768775563    -0.0000004326   0.000067809   0.000027793           1905          0
   7  6  0      -39.9768775587    -0.0000000024   0.000003232   0.000001999           1905          0
   8  7  0      -39.9768775587    -0.0000000000   0.000000048   0.000000034           1905          0

          -----------------
          DENSITY CONVERGED
          -----------------
     TIME TO FORM FOCK OPERATORS=       0.0 SECONDS (       0.0 SEC/ITER)
     FOCK TIME ON FIRST ITERATION=       0.0, LAST ITERATION=       0.0
     TIME TO SOLVE SCF EQUATIONS=       0.0 SECONDS (       0.0 SEC/ITER)

 FINAL RHF ENERGY IS      -39.9768775587 AFTER   8 ITERATIONS

          ------------
          EIGENVECTORS
          ------------

                      1          2          3          4          5
                  -11.1444    -0.9459    -0.5448    -0.5448    -0.5448
                     A1         A1         T2         T2         T2  
    1  C  1  S    0.987093  -0.208907  -0.000000  -0.000000  -0.000000
    2  C  1  S    0.099358   0.202443  -0.000000  -0.000000  -0.000000
    3  C  1  X    0.000000   0.000000   0.374470  -0.000000  -0.000000
    4  C  1  Y    0.000000   0.000000  -0.000000   0.374470  -0.000000
    5  C  1  Z    0.000000   0.000000  -0.000000  -0.000000   0.374470
    6  C  1  S   -0.072305   0.613406  -0.000000  -0.000000  -0.000000
    7  C  1  X    0.000000   0.000000   0.310004  -0.000000  -0.000000
    8  C  1  Y    0.000000   0.000000  -0.000000   0.310004  -0.000000
    9  C  1  Z    0.000000   0.000000  -0.000000  -0.000000   0.310004
   10  H  2  S   -0.000557   0.122970   0.159234  -0.159234  -0.159234
   11  H  2  S    0.014108   0.021806   0.149035  -0.149035  -0.149035
   12  H  3  S   -0.000557   0.122970  -0.159234   0.159234  -0.159234
   13  H  3  S    0.014108   0.021806  -0.149035   0.149035  -0.149035
   14  H  4  S   -0.000557   0.122970  -0.159234  -0.159234   0.159234
   15  H  4  S    0.014108   0.021806  -0.149035  -0.149035   0.149035
   16  H  5  S   -0.000557   0.122970   0.159234   0.159234   0.159234
   17  H  5  S    0.014108   0.021806   0.149035   0.149035   0.149035

                      6          7          8          9         10
                    0.2967     0.3526     0.3526     0.3526     0.9231
                     A1         T2         T2         T2         T2  
    1  C  1  S   -0.179055  -0.000000  -0.000000  -0.000000  -0.000000
    2  C  1  S    0.041696  -0.000000  -0.000000  -0.000000  -0.000000
    3  C  1  X    0.000000  -0.000000   0.268502  -0.000000  -0.749012
    4  C  1  Y    0.000000   0.268502  -0.000000  -0.000000  -0.000000
    5  C  1  Z    0.000000  -0.000000  -0.000000   0.268502  -0.000000
    6  C  1  S    2.531619  -0.000000  -0.000000  -0.000000  -0.000000
    7  C  1  X    0.000000  -0.000000   1.432562  -0.000000   1.253857
    8  C  1  Y    0.000000   1.432562  -0.000000  -0.000000  -0.000000
    9  C  1  Z    0.000000  -0.000000  -0.000000   1.432562  -0.000000
   10  H  2  S    0.005208   0.047859  -0.047859   0.047859  -0.376661
   11  H  2  S   -0.955595   1.046860  -1.046860   1.046860   0.008899
   12  H  3  S    0.005208  -0.047859   0.047859   0.047859   0.376661
   13  H  3  S   -0.955595  -1.046860   1.046860   1.046860  -0.008899
   14  H  4  S    0.005208   0.047859   0.047859  -0.047859   0.376661
   15  H  4  S   -0.955595   1.046860   1.046860  -1.046860  -0.008899
   16  H  5  S    0.005208  -0.047859  -0.047859  -0.047859  -0.376661
   17  H  5  S   -0.955595  -1.046860  -1.046860  -1.046860   0.008899

                     11         12         13         14         15
                    0.9231     0.9231     1.3333     1.3590     1.3590
                     T2         T2         A1         T2         T2  
    1  C  1  S   -0.000000  -0.000000   0.129930  -0.000000  -0.000000
    2  C  1  S   -0.000000  -0.000000  -0.137885  -0.000000  -0.000000
    3  C  1  X   -0.000000  -0.000000   0.000000  -0.000000  -0.862617
    4  C  1  Y   -0.749012  -0.000000   0.000000  -0.862617  -0.000000
    5  C  1  Z   -0.000000  -0.749012   0.000000  -0.000000  -0.000000
    6  C  1  S   -0.000000  -0.000000  -0.318676  -0.000000  -0.000000
    7  C  1  X   -0.000000  -0.000000   0.000000  -0.000000   0.981331
    8  C  1  Y    1.253857  -0.000000   0.000000   0.981331  -0.000000
    9  C  1  Z   -0.000000   1.253857   0.000000  -0.000000  -0.000000
   10  H  2  S    0.376661   0.376661   0.671270  -0.540076   0.540076
   11  H  2  S   -0.008899  -0.008899  -0.248197   0.816453  -0.816453
   12  H  3  S   -0.376661   0.376661   0.671270   0.540076  -0.540076
   13  H  3  S    0.008899  -0.008899  -0.248197  -0.816453   0.816453
   14  H  4  S    0.376661  -0.376661   0.671270  -0.540076  -0.540076
   15  H  4  S   -0.008899   0.008899  -0.248197   0.816453   0.816453
   16  H  5  S   -0.376661  -0.376661   0.671270   0.540076   0.540076
   17  H  5  S    0.008899   0.008899  -0.248197  -0.816453  -0.816453

                     16         17
                    1.3590     1.9559
                     T2         A1  
    1  C  1  S   -0.000000  -0.016354
    2  C  1  S   -0.000000  -2.003231
    3  C  1  X   -0.000000   0.000000
    4  C  1  Y   -0.000000   0.000000
    5  C  1  Z   -0.862617   0.000000
    6  C  1  S   -0.000000   3.925941
    7  C  1  X   -0.000000   0.000000
    8  C  1  Y   -0.000000   0.000000
    9  C  1  Z    0.981331   0.000000
   10  H  2  S   -0.540076  -0.140980
   11  H  2  S    0.816453  -0.776549
   12  H  3  S   -0.540076  -0.140980
   13  H  3  S    0.816453  -0.776549
   14  H  4  S    0.540076  -0.140980
   15  H  4  S   -0.816453  -0.776549
   16  H  5  S    0.540076  -0.140980
   17  H  5  S   -0.816453  -0.776549
 ...... END OF RHF CALCULATION ......
 STEP CPU TIME =     0.00 TOTAL CPU TIME =        0.0 (    0.0 MIN)
 TOTAL WALL CLOCK TIME=        0.0 SECONDS, CPU UTILIZATION IS 100.00%

     ----------------------------------------------------------------
     PROPERTY VALUES FOR THE RHF   SELF-CONSISTENT FIELD WAVEFUNCTION
     ----------------------------------------------------------------

          -----------------
          ENERGY COMPONENTS
          -----------------

         WAVEFUNCTION NORMALIZATION =       1.0000000000

                ONE ELECTRON ENERGY =     -79.5515140626
                TWO ELECTRON ENERGY =      26.0508848735
           NUCLEAR REPULSION ENERGY =      13.5237516304
                                      ------------------
                       TOTAL ENERGY =     -39.9768775587

 ELECTRON-ELECTRON POTENTIAL ENERGY =      26.0508848735
  NUCLEUS-ELECTRON POTENTIAL ENERGY =    -119.4395504410
   NUCLEUS-NUCLEUS POTENTIAL ENERGY =      13.5237516304
                                      ------------------
             TOTAL POTENTIAL ENERGY =     -79.8649139371
               TOTAL KINETIC ENERGY =      39.8880363785
                 VIRIAL RATIO (V/T) =       2.0022272638

          ---------------------------------------
          MULLIKEN AND LOWDIN POPULATION ANALYSES
          ---------------------------------------

     ATOMIC MULLIKEN POPULATION IN EACH MOLECULAR ORBITAL

                      1          2          3          4          5

                  2.000000   2.000000   2.000000   2.000000   2.000000

    1             1.988735   1.500095   1.101720   1.101720   1.101720
    2             0.002816   0.124976   0.224570   0.224570   0.224570
    3             0.002816   0.124976   0.224570   0.224570   0.224570
    4             0.002816   0.124976   0.224570   0.224570   0.224570
    5             0.002816   0.124976   0.224570   0.224570   0.224570

               ----- POPULATIONS IN EACH AO -----
                             MULLIKEN      LOWDIN
              1  C  1  S      1.98738     1.97689
              2  C  1  S      0.35954     0.41494
              3  C  1  X      0.54611     0.51048
              4  C  1  Y      0.54611     0.51048
              5  C  1  Z      0.54611     0.51048
              6  C  1  S      1.14191     0.59802
              7  C  1  X      0.55561     0.61944
              8  C  1  Y      0.55561     0.61944
              9  C  1  Z      0.55561     0.61944
             10  H  2  S      0.47052     0.46493
             11  H  2  S      0.33098     0.44017
             12  H  3  S      0.47052     0.46493
             13  H  3  S      0.33098     0.44017
             14  H  4  S      0.47052     0.46493
             15  H  4  S      0.33098     0.44017
             16  H  5  S      0.47052     0.46493
             17  H  5  S      0.33098     0.44017

          ----- MULLIKEN ATOMIC OVERLAP POPULATIONS -----
          (OFF-DIAGONAL ELEMENTS NEED TO BE MULTIPLIED BY 2)

             1           2           3           4           5

    1    5.3106574
    2    0.3708334   0.5078374
    3    0.3708334  -0.0257228   0.5078374
    4    0.3708334  -0.0257228  -0.0257228   0.5078374
    5    0.3708334  -0.0257228  -0.0257228  -0.0257228   0.5078374

          TOTAL MULLIKEN AND LOWDIN ATOMIC POPULATIONS
       ATOM         MULL.POP.    CHARGE          LOW.POP.     CHARGE
    1 C             6.793991   -0.793991         6.379617   -0.379617
    2 H             0.801502    0.198498         0.905096    0.094904
    3 H             0.801502    0.198498         0.905096    0.094904
    4 H             0.801502    0.198498         0.905096    0.094904
    5 H             0.801502    0.198498         0.905096    0.094904

          -------------------------------
          BOND ORDER AND VALENCE ANALYSIS     BOND ORDER THRESHOLD=0.050
          -------------------------------

                   BOND                       BOND                       BOND
  ATOM PAIR DIST  ORDER      ATOM PAIR DIST  ORDER      ATOM PAIR DIST  ORDER
    1   2  1.083  0.934        1   3  1.083  0.934        1   4  1.083  0.934
    1   5  1.083  0.934

                       TOTAL       BONDED        FREE
      ATOM            VALENCE     VALENCE     VALENCE
    1 C                 3.735       3.735       0.000
    2 H                 0.920       0.920      -0.000
    3 H                 0.920       0.920      -0.000
    4 H                 0.920       0.920      -0.000
    5 H                 0.920       0.920      -0.000

          ---------------------
          ELECTROSTATIC MOMENTS
          ---------------------

 POINT   1           X           Y           Z (BOHR)    CHARGE
                 0.000000    0.000000    0.000000       -0.00 (A.U.)
         DX          DY          DZ         /D/  (DEBYE)
     0.000000    0.000000    0.000000    0.000000
 ...... END OF PROPERTY EVALUATION ......
 STEP CPU TIME =     0.00 TOTAL CPU TIME =        0.0 (    0.0 MIN)
 TOTAL WALL CLOCK TIME=        0.0 SECONDS, CPU UTILIZATION IS  66.67%
               580000  WORDS OF DYNAMIC MEMORY USED
 EXECUTION OF GAMESS TERMINATED NORMALLY Sat Oct 22 20:40:32 2016
 DDI: 263640 bytes (0.3 MB / 0 MWords) used by master data server.

 ----------------------------------------
 CPU timing information for all processes
 ========================================
 0: 0.24 + 0.04 = 0.28
 ----------------------------------------
 ddikick.x: exited gracefully.
----- accounting info -----
Files used on the master node garcias-gamess-test-vnc-3618725 were:
-rw-r--r-- 1 ubuntu ubuntu     345 Oct 22 20:40 /tmp/methane.F05
-rw-r--r-- 1 ubuntu ubuntu 1537840 Oct 22 20:40 /tmp/methane.F10
-rw-r--r-- 1 ubuntu ubuntu    5652 Oct 22 20:40 /tmp/methane.dat
Sat Oct 22 20:40:35 UTC 2016
0.0u 0.0s 0:03.18 0.3% 0+0k 0+16io 0pf+0w
