----- GAMESS execution script 'rungms' -----
This job is running on host garcias-gamess-test-vnc-3618725
under operating system Linux at Sat Oct 22 17:29:46 UTC 2016
Available scratch disk space (Kbyte units) at beginning of the job is
Filesystem     1K-blocks    Used Available Use% Mounted on
none             2234668 1315564    783988  63% /
GAMESS temporary binary files will be written to /tmp
GAMESS supplementary output files will be written to /tmp
Copying input file N2.inp to your run's scratch directory...

 Distributed Data Interface kickoff program.
 Initiating 1 compute processes on 1 nodes to run the following command:
 /home/ubuntu/gamess/gamess.00.x N2 

          ******************************************************
          *         GAMESS VERSION =  5 DEC 2014 (R1)          *
          *             FROM IOWA STATE UNIVERSITY             *
          * M.W.SCHMIDT, K.K.BALDRIDGE, J.A.BOATZ, S.T.ELBERT, *
          *   M.S.GORDON, J.H.JENSEN, S.KOSEKI, N.MATSUNAGA,   *
          *          K.A.NGUYEN, S.J.SU, T.L.WINDUS,           *
          *       TOGETHER WITH M.DUPUIS, J.A.MONTGOMERY       *
          *         J.COMPUT.CHEM.  14, 1347-1363(1993)        *
          **************** 64 BIT LINUX VERSION ****************

  SINCE 1993, STUDENTS AND POSTDOCS WORKING AT IOWA STATE UNIVERSITY
  AND ALSO IN THEIR VARIOUS JOBS AFTER LEAVING ISU HAVE MADE IMPORTANT
  CONTRIBUTIONS TO THE CODE:
     IVANA ADAMOVIC, CHRISTINE AIKENS, YURI ALEXEEV, POOJA ARORA,
     ANDREY ASADCHEV, ROB BELL, PRADIPTA BANDYOPADHYAY, JONATHAN BENTZ,
     BRETT BODE, KURT BRORSEN, CALEB CARLIN, GALINA CHABAN, WEI CHEN,
     CHEOL HO CHOI, PAUL DAY, ALBERT DEFUSCO, NUWAN DESILVA, TIM DUDLEY,
     DMITRI FEDOROV, GRAHAM FLETCHER, MARK FREITAG, KURT GLAESEMANN,
     DAN KEMP, GRANT MERRILL, NORIYUKI MINEZAWA, JONATHAN MULLIN,
     TAKESHI NAGATA, SEAN NEDD, HEATHER NETZLOFF, BOSILJKA NJEGIC, RYAN OLSON,
     MIKE PAK, SPENCER PRUITT, LUKE ROSKOP, JIM SHOEMAKER, LYUDMILA SLIPCHENKO,
     TONY SMITH, SAROM SOK, JIE SONG, TETSUYA TAKETSUGU, SIMON WEBB,
     PENG XU, SOOHAENG YOO, FEDERICO ZAHARIEV

  ADDITIONAL CODE HAS BEEN PROVIDED BY COLLABORATORS IN OTHER GROUPS:
     IOWA STATE UNIVERSITY:
          JOE IVANIC, AARON WEST, LAIMUTIS BYTAUTAS, KLAUS RUEDENBERG
     UNIVERSITY OF TOKYO: KIMIHIKO HIRAO, TAKAHITO NAKAJIMA,
          TAKAO TSUNEDA, MUNEAKI KAMIYA, SUSUMU YANAGISAWA,
          KIYOSHI YAGI, MAHITO CHIBA, SEIKEN TOKURA, NAOAKI KAWAKAMI
     UNIVERSITY OF AARHUS: FRANK JENSEN
     UNIVERSITY OF IOWA: VISVALDAS KAIRYS, HUI LI
     NATIONAL INST. OF STANDARDS AND TECHNOLOGY: WALT STEVENS, DAVID GARMER
     UNIVERSITY OF PISA: BENEDETTA MENNUCCI, JACOPO TOMASI
     UNIVERSITY OF MEMPHIS: HENRY KURTZ, PRAKASHAN KORAMBATH
     UNIVERSITY OF ALBERTA: TOBY ZENG, MARIUSZ KLOBUKOWSKI
     UNIVERSITY OF NEW ENGLAND: MARK SPACKMAN
     MIE UNIVERSITY: HIROAKI UMEDA
     NAT. INST. OF ADVANCED INDUSTRIAL SCIENCE AND TECHNOLOGY: KAZUO KITAURA
     MICHIGAN STATE UNIVERSITY:
          KAROL KOWALSKI, MARTA WLOCH, JEFFREY GOUR, JESSE LUTZ,
          WEI LI, PIOTR PIECUCH
     UNIVERSITY OF SILESIA: MONIKA MUSIAL, STANISLAW KUCHARSKI
     FACULTES UNIVERSITAIRES NOTRE-DAME DE LA PAIX:
          OLIVIER QUINET, BENOIT CHAMPAGNE
     UNIVERSITY OF CALIFORNIA - SANTA BARBARA: BERNARD KIRTMAN
     INSTITUTE FOR MOLECULAR SCIENCE:
          KAZUYA ISHIMURA, MICHIO KATOUDA, AND SHIGERU NAGASE
     UNIVERSITY OF NOTRE DAME: ANNA POMOGAEVA, DAN CHIPMAN
     KYUSHU UNIVERSITY:
          HARUYUKI NAKANO,
          FENG LONG GU, JACEK KORCHOWIEC, MARCIN MAKOWSKI, AND YURIKO AOKI,
          HIROTOSHI MORI AND EISAKU MIYOSHI
     PENNSYLVANIA STATE UNIVERSITY:
          TZVETELIN IORDANOV, CHET SWALINA, JONATHAN SKONE,
          SHARON HAMMES-SCHIFFER
     WASEDA UNIVERSITY:
          MASATO KOBAYASHI, TOMOKO AKAMA, TSUGUKI TOUMA,
          TAKESHI YOSHIKAWA, YASUHIRO IKABATA, HIROMI NAKAI
     NANJING UNIVERSITY: SHUHUA LI
     UNIVERSITY OF NEBRASKA:
          PEIFENG SU, DEJUN SI, NANDUN THELLAMUREGE, YALI WANG, HUI LI
     UNIVERSITY OF ZURICH: ROBERTO PEVERATI, KIM BALDRIDGE
     N. COPERNICUS UNIVERSITY AND JACKSON STATE UNIVERSITY:
          MARIA BARYSZ
     UNIVERSITY OF COPENHAGEN: CASPER STEINMANN
     TOKYO INSTITUTE OF TECHNOLOGY: HIROYA NAKATA
     NAGOYA UNIVERSITY: YOSHIO NISHIMOTO, STEPHAN IRLE

 EXECUTION OF GAMESS BEGUN Sat Oct 22 17:29:47 2016

            ECHO OF THE FIRST FEW INPUT CARDS -
 INPUT CARD>!                                                                               
 INPUT CARD>!   GAMESS Calculation input file                                               
 INPUT CARD>!                                                                               
 INPUT CARD> $CONTRL SCFTYP=RHF RUNTYP=ENERGY MAXIT=30 COORD=UNIQUE MULT=1 ICHARG=0 $END    
 INPUT CARD> $SYSTEM TIMLIM=525600 MEMORY=1000000 $END                                      
 INPUT CARD> $STATPT OPTTOL=0.0005 NSTEP=99 IHREP = 20 $END                                 
 INPUT CARD> $BASIS GBASIS=N21 NGAUSS=3 $END                                                
 INPUT CARD> $SCF DIRSCF=.TRUE. $END                                                        
 INPUT CARD> $GUESS GUESS=HUCKEL $END                                                       
 INPUT CARD> $DATA                                                                          
 INPUT CARD>Title                                                                           
 INPUT CARD>C1                                                                              
 INPUT CARD>N           7.0   0.5414152196   0.0000000000   0.0000000000                    
 INPUT CARD>N           7.0  -0.5414152196   0.0000000000   0.0000000000                    
 INPUT CARD> $END                                                                           
    1000000 WORDS OF MEMORY AVAILABLE

     BASIS OPTIONS
     -------------
     GBASIS=N21          IGAUSS=       3      POLAR=NONE    
     NDFUNC=       0     NFFUNC=       0     DIFFSP=       F
     NPFUNC=       0      DIFFS=       F     BASNAM=        


     RUN TITLE
     ---------
 Title                                                                           

 THE POINT GROUP OF THE MOLECULE IS C1      
 THE ORDER OF THE PRINCIPAL AXIS IS     0

 ATOM      ATOMIC                      COORDINATES (BOHR)
           CHARGE         X                   Y                   Z
 N           7.0     1.0231264106        0.0000000000        0.0000000000
 N           7.0    -1.0231264106        0.0000000000        0.0000000000

          INTERNUCLEAR DISTANCES (ANGS.)
          ------------------------------

                1 N          2 N     

   1 N       0.0000000    1.0828304 *
   2 N       1.0828304 *  0.0000000  

  * ... LESS THAN  3.000


     ATOMIC BASIS SET
     ----------------
 THE CONTRACTED PRIMITIVE FUNCTIONS HAVE BEEN UNNORMALIZED
 THE CONTRACTED BASIS FUNCTIONS ARE NOW NORMALIZED TO UNITY

  SHELL TYPE  PRIMITIVE        EXPONENT          CONTRACTION COEFFICIENT(S)

 N         

      1   S       1           242.7660000    0.059865700508
      1   S       2            36.4851000    0.352955002994
      1   S       3             7.8144900    0.706513005993

      2   L       4             5.4252200   -0.413300077430    0.237972016222
      2   L       5             1.1491500    1.224417266851    0.858953058551

      3   L       6             0.2832050    1.000000000000    1.000000000000

 N         

      4   S       7           242.7660000    0.059865700508
      4   S       8            36.4851000    0.352955002994
      4   S       9             7.8144900    0.706513005993

      5   L      10             5.4252200   -0.413300077430    0.237972016222
      5   L      11             1.1491500    1.224417266851    0.858953058551

      6   L      12             0.2832050    1.000000000000    1.000000000000

 TOTAL NUMBER OF BASIS SET SHELLS             =    6
 NUMBER OF CARTESIAN GAUSSIAN BASIS FUNCTIONS =   18
 NUMBER OF ELECTRONS                          =   14
 CHARGE OF MOLECULE                           =    0
 SPIN MULTIPLICITY                            =    1
 NUMBER OF OCCUPIED ORBITALS (ALPHA)          =    7
 NUMBER OF OCCUPIED ORBITALS (BETA )          =    7
 TOTAL NUMBER OF ATOMS                        =    2
 THE NUCLEAR REPULSION ENERGY IS       23.9462101120

 THIS MOLECULE IS RECOGNIZED AS BEING LINEAR,
 ORBITAL LZ DEGENERACY TOLERANCE ETOLLZ= 1.00E-06

     $CONTRL OPTIONS
     ---------------
 SCFTYP=RHF          RUNTYP=ENERGY       EXETYP=RUN     
 MPLEVL=       0     CITYP =NONE         CCTYP =NONE         VBTYP =NONE    
 DFTTYP=NONE         TDDFT =NONE    
 MULT  =       1     ICHARG=       0     NZVAR =       0     COORD =UNIQUE  
 PP    =NONE         RELWFN=NONE         LOCAL =NONE         NUMGRD=       F
 ISPHER=      -1     NOSYM =       0     MAXIT =      30     UNITS =ANGS    
 PLTORB=       F     MOLPLT=       F     AIMPAC=       F     FRIEND=        
 NPRINT=       7     IREST =       0     GEOM  =INPUT   
 NORMF =       0     NORMP =       0     ITOL  =      20     ICUT  =       9
 INTTYP=BEST         GRDTYP=BEST         QMTTOL= 1.0E-06

     $SYSTEM OPTIONS
     ---------------
  REPLICATED MEMORY=     1000000 WORDS (ON EVERY NODE).
 DISTRIBUTED MEMDDI=           0 MILLION WORDS IN AGGREGATE,
 MEMDDI DISTRIBUTED OVER   1 PROCESSORS IS           0 WORDS/PROCESSOR.
 TOTAL MEMORY REQUESTED ON EACH PROCESSOR=     1000000 WORDS.
 TIMLIM=      525600.00 MINUTES, OR     365.0 DAYS.
 PARALL= F  BALTYP=  DLB     KDIAG=    0  COREFL= F
 MXSEQ2=     300 MXSEQ3=     150  mem10=         0

          ----------------
          PROPERTIES INPUT
          ----------------

     MOMENTS            FIELD           POTENTIAL          DENSITY
 IEMOM =       1   IEFLD =       0   IEPOT =       0   IEDEN =       0
 WHERE =COMASS     WHERE =NUCLEI     WHERE =NUCLEI     WHERE =NUCLEI  
 OUTPUT=BOTH       OUTPUT=BOTH       OUTPUT=BOTH       OUTPUT=BOTH    
 IEMINT=       0   IEFINT=       0                     IEDINT=       0
                                                       MORB  =       0
          EXTRAPOLATION IN EFFECT
          SOSCF IN EFFECT
 ORBITAL PRINTING OPTION: NPREO=     1    18     2     1

     -------------------------------
     INTEGRAL TRANSFORMATION OPTIONS
     -------------------------------
     NWORD  =            0
     CUTOFF = 1.0E-09     MPTRAN =       0
     DIRTRF =       T     AOINTS =DUP     

          ----------------------
          INTEGRAL INPUT OPTIONS
          ----------------------
 NOPK  =       1 NORDER=       0 SCHWRZ=       T

     ------------------------------------------
     THE POINT GROUP IS C1 , NAXIS= 0, ORDER= 1
     ------------------------------------------

     DIMENSIONS OF THE SYMMETRY SUBSPACES ARE
 A   =   18

 ..... DONE SETTING UP THE RUN .....
 STEP CPU TIME =     0.00 TOTAL CPU TIME =        0.0 (    0.0 MIN)
 TOTAL WALL CLOCK TIME=        0.0 SECONDS, CPU UTILIZATION IS   0.00%

          ********************
          1 ELECTRON INTEGRALS
          ********************
 ...... END OF ONE-ELECTRON INTEGRALS ......
 STEP CPU TIME =     0.00 TOTAL CPU TIME =        0.0 (    0.0 MIN)
 TOTAL WALL CLOCK TIME=        0.0 SECONDS, CPU UTILIZATION IS   0.00%

          -------------
          GUESS OPTIONS
          -------------
          GUESS =HUCKEL            NORB  =       0          NORDER=       0
          MIX   =       F          PRTMO =       F          PUNMO =       F
          TOLZ  = 1.0E-08          TOLE  = 1.0E-05
          SYMDEN=       F          PURIFY=       F

 INITIAL GUESS ORBITALS GENERATED BY HUCKEL   ROUTINE.
 HUCKEL GUESS REQUIRES      4352 WORDS.

 SYMMETRIES FOR INITIAL GUESS ORBITALS FOLLOW.   BOTH SET(S).
     7 ORBITALS ARE OCCUPIED (    2 CORE ORBITALS).
     3=A        4=A        5=A        6=A        7=A        8=A        9=A   
    10=A       11=A       12=A       13=A       14=A       15=A       16=A   
    17=A   
 ...... END OF INITIAL ORBITAL SELECTION ......
 STEP CPU TIME =     0.00 TOTAL CPU TIME =        0.0 (    0.0 MIN)
 TOTAL WALL CLOCK TIME=        0.0 SECONDS, CPU UTILIZATION IS   0.00%

                    ----------------------
                    AO INTEGRAL TECHNOLOGY
                    ----------------------
     S,P,L SHELL ROTATED AXIS INTEGRALS, REPROGRAMMED BY
        KAZUYA ISHIMURA (IMS) AND JOSE SIERRA (SYNSTAR).
     S,P,D,L SHELL ROTATED AXIS INTEGRALS PROGRAMMED BY
        KAZUYA ISHIMURA (INSTITUTE FOR MOLECULAR SCIENCE).
     S,P,D,F,G SHELL TO TOTAL QUARTET ANGULAR MOMENTUM SUM 5,
        ERIC PROGRAM BY GRAHAM FLETCHER (ELORET AND NASA ADVANCED
        SUPERCOMPUTING DIVISION, AMES RESEARCH CENTER).
     S,P,D,F,G,L SHELL GENERAL RYS QUADRATURE PROGRAMMED BY
        MICHEL DUPUIS (PACIFIC NORTHWEST NATIONAL LABORATORY).

          --------------------
          2 ELECTRON INTEGRALS
          --------------------

 DIRECT SCF METHOD SKIPS INTEGRAL STORAGE ON DISK.
 DIRECT TRANSFORMATION SKIPS AO INTEGRAL STORAGE ON DISK.
  ...... END OF TWO-ELECTRON INTEGRALS .....
 STEP CPU TIME =     0.02 TOTAL CPU TIME =        0.0 (    0.0 MIN)
 TOTAL WALL CLOCK TIME=        0.0 SECONDS, CPU UTILIZATION IS 100.00%

          --------------------------
                 RHF SCF CALCULATION
          --------------------------

     NUCLEAR ENERGY =        23.9462101120
     MAXIT =   30     NPUNCH=    2
     EXTRAP=T  DAMP=F  SHIFT=F  RSTRCT=F  DIIS=F  DEM=F  SOSCF=T
     DENSITY MATRIX CONV=  2.00E-05
     SOSCF WILL OPTIMIZE      77 ORBITAL ROTATIONS, SOGTOL=   0.250
     MEMORY REQUIRED FOR RHF ITERS=     47226 WORDS.

 DIRECT SCF CALCULATION, SCHWRZ=T   FDIFF=T,  DIRTHR=  0.00E+00 NITDIR=10
 SCHWARZ INEQUALITY OVERHEAD:       171 INTEGRALS, T=        0.00

                                                                                   NONZERO     BLOCKS
 ITER EX DEM     TOTAL ENERGY        E CHANGE  DENSITY CHANGE     ORB. GRAD      INTEGRALS    SKIPPED
   1  0  0     -108.0121428195  -108.0121428195   0.579997239   0.000000000           4349          1
          ---------------START SECOND ORDER SCF---------------
   2  1  0     -108.2936144208    -0.2814716013   0.174111718   0.045762942           4349          1
   3  2  0     -108.3006960990    -0.0070816783   0.043886973   0.007781795           4345          3
   4  3  0     -108.3009527351    -0.0002566360   0.000672956   0.000610780           4345          3
   5  4  0     -108.3009535335    -0.0000007984   0.000101136   0.000084256           4301         16
   6  5  0     -108.3009535588    -0.0000000254   0.000034694   0.000011232           4275         21
   7  6  0     -108.3009535594    -0.0000000005   0.000001468   0.000001113           4275         21
   8  7  0     -108.3009535594    -0.0000000000   0.000000147   0.000000176           4275         21

          -----------------
          DENSITY CONVERGED
          -----------------
     TIME TO FORM FOCK OPERATORS=       0.0 SECONDS (       0.0 SEC/ITER)
     FOCK TIME ON FIRST ITERATION=       0.0, LAST ITERATION=       0.0
     TIME TO SOLVE SCF EQUATIONS=       0.0 SECONDS (       0.0 SEC/ITER)

 FINAL RHF ENERGY IS     -108.3009535594 AFTER   8 ITERATIONS

 LZ VALUE ANALYSIS FOR THE MOS
 ----------------------------------------
 MO     1 (    1) HAS LZ(WEIGHT)= 0.00(100.0%) 
 MO     2 (    2) HAS LZ(WEIGHT)= 0.00(100.0%) 
 MO     3 (    3) HAS LZ(WEIGHT)= 0.00(100.0%) 
 MO     4 (    4) HAS LZ(WEIGHT)= 0.00(100.0%) 
 MO     5 (    5) HAS LZ(WEIGHT)= 0.00(100.0%) 
 MO     6 (    5) HAS LZ(WEIGHT)= 0.00(100.0%) 
 MO     7 (    6) HAS LZ(WEIGHT)= 0.00(100.0%) 
 MO     8 (    7) HAS LZ(WEIGHT)= 0.00(100.0%) 
 MO     9 (    7) HAS LZ(WEIGHT)= 0.00(100.0%) 
 MO    10 (    8) HAS LZ(WEIGHT)= 0.00(100.0%) 
 MO    11 (    9) HAS LZ(WEIGHT)= 0.00(100.0%) 
 MO    12 (   10) HAS LZ(WEIGHT)= 0.00(100.0%) 
 MO    13 (   10) HAS LZ(WEIGHT)= 0.00(100.0%) 
 MO    14 (   11) HAS LZ(WEIGHT)= 0.00(100.0%) 
 MO    15 (   11) HAS LZ(WEIGHT)= 0.00(100.0%) 
 MO    16 (   12) HAS LZ(WEIGHT)= 0.00(100.0%) 
 MO    17 (   13) HAS LZ(WEIGHT)= 0.00(100.0%) 
 MO    18 (   14) HAS LZ(WEIGHT)= 0.00(100.0%) 

          ------------
          EIGENVECTORS
          ------------

                      1          2          3          4          5
                  -15.6103   -15.6094    -1.5191    -0.7568    -0.6196
                     A          A          A          A          A   
    1  N  1  S    0.696403  -0.696919  -0.168592   0.161778   0.000000
    2  N  1  S    0.063484  -0.070689   0.200687  -0.159505   0.000000
    3  N  1  X   -0.001461   0.005526  -0.222379  -0.169639   0.000000
    4  N  1  Y    0.000000  -0.000000   0.000000   0.000000   0.358838
    5  N  1  Z    0.000000  -0.000000   0.000000   0.000000   0.015583
    6  N  1  S   -0.015663   0.062301   0.316807  -0.704086   0.000000
    7  N  1  X    0.002373  -0.025778  -0.071766  -0.073482   0.000000
    8  N  1  Y    0.000000  -0.000000   0.000000   0.000000   0.344852
    9  N  1  Z    0.000000  -0.000000   0.000000   0.000000   0.014976
   10  N  2  S    0.696403   0.696919  -0.168592  -0.161778   0.000000
   11  N  2  S    0.063484   0.070689   0.200687   0.159505   0.000000
   12  N  2  X    0.001461   0.005526   0.222379  -0.169639   0.000000
   13  N  2  Y    0.000000  -0.000000   0.000000   0.000000   0.358838
   14  N  2  Z    0.000000  -0.000000   0.000000   0.000000   0.015583
   15  N  2  S   -0.015663  -0.062301   0.316807   0.704086   0.000000
   16  N  2  X   -0.002373  -0.025778   0.071766  -0.073482   0.000000
   17  N  2  Y    0.000000  -0.000000   0.000000   0.000000   0.344852
   18  N  2  Z    0.000000  -0.000000   0.000000   0.000000   0.014976

                      6          7          8          9         10
                   -0.6196    -0.6163     0.1860     0.1860     0.7621
                     A          A          A          A          A   
    1  N  1  S   -0.000000   0.069315   0.000000   0.000000   0.139006
    2  N  1  S   -0.000000  -0.022825   0.000000   0.000000  -0.059975
    3  N  1  X   -0.000000  -0.402625   0.000000   0.000000   0.174940
    4  N  1  Y   -0.015583  -0.000000   0.294945   0.226661   0.000000
    5  N  1  Z    0.358838  -0.000000  -0.226661   0.294945   0.000000
    6  N  1  S   -0.000000  -0.399641   0.000000   0.000000  -3.058886
    7  N  1  X   -0.000000  -0.277467   0.000000   0.000000   2.216792
    8  N  1  Y   -0.014976  -0.000000   0.542359   0.416796   0.000000
    9  N  1  Z    0.344852  -0.000000  -0.416796   0.542359   0.000000
   10  N  2  S   -0.000000   0.069315   0.000000   0.000000  -0.139006
   11  N  2  S   -0.000000  -0.022825   0.000000   0.000000   0.059975
   12  N  2  X   -0.000000   0.402625   0.000000   0.000000   0.174940
   13  N  2  Y   -0.015583  -0.000000  -0.294945  -0.226661   0.000000
   14  N  2  Z    0.358838  -0.000000   0.226661  -0.294945   0.000000
   15  N  2  S   -0.000000  -0.399641   0.000000   0.000000   3.058886
   16  N  2  X   -0.000000   0.277467   0.000000   0.000000   2.216792
   17  N  2  Y   -0.014976  -0.000000  -0.542359  -0.416796   0.000000
   18  N  2  Z    0.344852  -0.000000   0.416796  -0.542359   0.000000

                     11         12         13         14         15
                    1.1930     1.2767     1.2767     1.4221     1.4221
                     A          A          A          A          A   
    1  N  1  S    0.036724  -0.000000  -0.000000   0.000000  -0.000000
    2  N  1  S    0.154828  -0.000000  -0.000000   0.000000  -0.000000
    3  N  1  X   -0.626559  -0.000000  -0.000000   0.000000  -0.000000
    4  N  1  Y   -0.000000   0.724958  -0.136882  -0.621066   0.432947
    5  N  1  Z   -0.000000   0.136882   0.724958   0.432947   0.621066
    6  N  1  S    0.121333  -0.000000  -0.000000   0.000000  -0.000000
    7  N  1  X    0.906078  -0.000000  -0.000000   0.000000  -0.000000
    8  N  1  Y   -0.000000  -0.577187   0.108981   0.824802  -0.574972
    9  N  1  Z   -0.000000  -0.108981  -0.577187  -0.574972  -0.824802
   10  N  2  S    0.036724  -0.000000  -0.000000   0.000000  -0.000000
   11  N  2  S    0.154828  -0.000000  -0.000000   0.000000  -0.000000
   12  N  2  X    0.626559  -0.000000  -0.000000   0.000000  -0.000000
   13  N  2  Y   -0.000000   0.724958  -0.136882   0.621066  -0.432947
   14  N  2  Z   -0.000000   0.136882   0.724958  -0.432947  -0.621066
   15  N  2  S    0.121333  -0.000000  -0.000000   0.000000  -0.000000
   16  N  2  X   -0.906078  -0.000000  -0.000000   0.000000  -0.000000
   17  N  2  Y   -0.000000  -0.577187   0.108981  -0.824802   0.574972
   18  N  2  Z   -0.000000  -0.108981  -0.577187   0.574972   0.824802

                     16         17         18
                    1.4955     1.8446     2.5843
                     A          A          A   
    1  N  1  S    0.020134  -0.054910  -0.021136
    2  N  1  S    0.111456   1.088238   1.290580
    3  N  1  X    0.873751   0.097044  -0.161900
    4  N  1  Y    0.000000  -0.000000  -0.000000
    5  N  1  Z    0.000000  -0.000000  -0.000000
    6  N  1  S    0.263108  -0.800659  -3.713718
    7  N  1  X   -0.753677   0.028305   1.759427
    8  N  1  Y    0.000000  -0.000000  -0.000000
    9  N  1  Z    0.000000  -0.000000  -0.000000
   10  N  2  S   -0.020134  -0.054910   0.021136
   11  N  2  S   -0.111456   1.088238  -1.290580
   12  N  2  X    0.873751  -0.097044  -0.161900
   13  N  2  Y    0.000000  -0.000000  -0.000000
   14  N  2  Z    0.000000  -0.000000  -0.000000
   15  N  2  S   -0.263108  -0.800659   3.713718
   16  N  2  X   -0.753677  -0.028305   1.759427
   17  N  2  Y    0.000000  -0.000000  -0.000000
   18  N  2  Z    0.000000  -0.000000  -0.000000
 ...... END OF RHF CALCULATION ......
 STEP CPU TIME =     0.00 TOTAL CPU TIME =        0.0 (    0.0 MIN)
 TOTAL WALL CLOCK TIME=        0.0 SECONDS, CPU UTILIZATION IS  66.67%

     ----------------------------------------------------------------
     PROPERTY VALUES FOR THE RHF   SELF-CONSISTENT FIELD WAVEFUNCTION
     ----------------------------------------------------------------

          -----------------
          ENERGY COMPONENTS
          -----------------

         WAVEFUNCTION NORMALIZATION =       1.0000000000

                ONE ELECTRON ENERGY =    -193.7920816891
                TWO ELECTRON ENERGY =      61.5449180177
           NUCLEAR REPULSION ENERGY =      23.9462101120
                                      ------------------
                       TOTAL ENERGY =    -108.3009535594

 ELECTRON-ELECTRON POTENTIAL ENERGY =      61.5449180177
  NUCLEUS-ELECTRON POTENTIAL ENERGY =    -301.8784343400
   NUCLEUS-NUCLEUS POTENTIAL ENERGY =      23.9462101120
                                      ------------------
             TOTAL POTENTIAL ENERGY =    -216.3873062103
               TOTAL KINETIC ENERGY =     108.0863526509
                 VIRIAL RATIO (V/T) =       2.0019854580

  ...... PI ENERGY ANALYSIS ......

 ENERGY ANALYSIS:
            FOCK ENERGY=    -70.7022450226
          BARE H ENERGY=   -193.7920816891
     ELECTRONIC ENERGY =   -132.2471633558
         KINETIC ENERGY=    108.0863526509
          N-N REPULSION=     23.9462101120
           TOTAL ENERGY=   -108.3009532438
        SIGMA PART(1+2)=   -115.0790125239
               (K,V1,2)=    101.6930550427   -263.6274249356     46.8553573690
           PI PART(1+2)=    -17.1681508320
               (K,V1,2)=      6.3932976082    -38.2510094045     14.6895609643
  SIGMA SKELETON, ERROR=    -91.1328024118     -0.0000000000
             MIXED PART= 0.00000E+00 0.00000E+00 0.00000E+00 0.00000E+00
 ...... END OF PI ENERGY ANALYSIS ......

          ---------------------------------------
          MULLIKEN AND LOWDIN POPULATION ANALYSES
          ---------------------------------------

     ATOMIC MULLIKEN POPULATION IN EACH MOLECULAR ORBITAL

                      1          2          3          4          5

                  2.000000   2.000000   2.000000   2.000000   2.000000

    1             1.000000   1.000000   1.000000   1.000000   1.000000
    2             1.000000   1.000000   1.000000   1.000000   1.000000

                      6          7

                  2.000000   2.000000

    1             1.000000   1.000000
    2             1.000000   1.000000

               ----- POPULATIONS IN EACH AO -----
                             MULLIKEN      LOWDIN
              1  N  1  S      1.98936     1.98490
              2  N  1  S      0.46148     0.56294
              3  N  1  X      0.80517     0.78833
              4  N  1  Y      0.45309     0.43310
              5  N  1  Z      0.45309     0.43310
              6  N  1  S      1.38664     1.00189
              7  N  1  X      0.35735     0.66193
              8  N  1  Y      0.54691     0.56690
              9  N  1  Z      0.54691     0.56690
             10  N  2  S      1.98936     1.98490
             11  N  2  S      0.46148     0.56294
             12  N  2  X      0.80517     0.78833
             13  N  2  Y      0.45309     0.43310
             14  N  2  Z      0.45309     0.43310
             15  N  2  S      1.38664     1.00189
             16  N  2  X      0.35735     0.66193
             17  N  2  Y      0.54691     0.56690
             18  N  2  Z      0.54691     0.56690

          ----- MULLIKEN ATOMIC OVERLAP POPULATIONS -----
          (OFF-DIAGONAL ELEMENTS NEED TO BE MULTIPLIED BY 2)

             1           2

    1    6.5628730
    2    0.4371270   6.5628730

          TOTAL MULLIKEN AND LOWDIN ATOMIC POPULATIONS
       ATOM         MULL.POP.    CHARGE          LOW.POP.     CHARGE
    1 N             7.000000    0.000000         7.000000   -0.000000
    2 N             7.000000   -0.000000         7.000000    0.000000

          -------------------------------
          BOND ORDER AND VALENCE ANALYSIS     BOND ORDER THRESHOLD=0.050
          -------------------------------

                   BOND                       BOND                       BOND
  ATOM PAIR DIST  ORDER      ATOM PAIR DIST  ORDER      ATOM PAIR DIST  ORDER
    1   2  1.083  2.781

                       TOTAL       BONDED        FREE
      ATOM            VALENCE     VALENCE     VALENCE
    1 N                 2.781       2.781      -0.000
    2 N                 2.781       2.781       0.000

          ---------------------
          ELECTROSTATIC MOMENTS
          ---------------------

 POINT   1           X           Y           Z (BOHR)    CHARGE
                 0.000000    0.000000    0.000000       -0.00 (A.U.)
         DX          DY          DZ         /D/  (DEBYE)
     0.000000    0.000000    0.000000    0.000000
 ...... END OF PROPERTY EVALUATION ......
 STEP CPU TIME =     0.00 TOTAL CPU TIME =        0.0 (    0.0 MIN)
 TOTAL WALL CLOCK TIME=        0.0 SECONDS, CPU UTILIZATION IS  66.67%
               580000  WORDS OF DYNAMIC MEMORY USED
 EXECUTION OF GAMESS TERMINATED NORMALLY Sat Oct 22 17:29:47 2016
 DDI: 263640 bytes (0.3 MB / 0 MWords) used by master data server.

 ----------------------------------------
 CPU timing information for all processes
 ========================================
 0: 0.28 + 0.04 = 0.32
 ----------------------------------------
 ddikick.x: exited gracefully.
----- accounting info -----
Files used on the master node garcias-gamess-test-vnc-3618725 were:
-rw-r--r-- 1 ubuntu ubuntu     438 Oct 22 17:29 /tmp/N2.F05
-rw-r--r-- 1 ubuntu ubuntu 1570560 Oct 22 17:29 /tmp/N2.F10
-rw-r--r-- 1 ubuntu ubuntu    6047 Oct 22 17:29 /tmp/N2.dat
Sat Oct 22 17:29:50 UTC 2016
0.0u 0.0s 0:03.20 0.3% 0+0k 0+16io 0pf+0w
